/*--------------------------------*- C++ -*----------------------------------*\
| =========                 |                                                 |
| \\      /  F ield         | OpenFOAM: The Open Source CFD Toolbox           |
|  \\    /   O peration     | Version:  v2012                                 |
|   \\  /    A nd           | Website:  www.openfoam.com                      |
|    \\/     M anipulation  |                                                 |
\*---------------------------------------------------------------------------*/
FoamFile
{
    version     2.0;
    format      ascii;
    class       volScalarField;
    location    "1";
    object      p;
}
// * * * * * * * * * * * * * * * * * * * * * * * * * * * * * * * * * * * * * //

dimensions      [0 2 -2 0 0 0 0];


internalField   nonuniform List<scalar> 
65536
(
37.525487
33.054695
29.874337
27.925393
27.126294
26.993509
26.592061
25.405728
24.042337
23.464965
23.900941
24.895539
25.942281
26.778623
27.339341
27.643856
27.731612
27.633201
27.365654
26.936707
26.357032
25.645277
24.833117
23.969173
23.110178
22.316631
21.644337
21.134509
20.808046
20.660842
20.669555
20.795070
20.987287
21.197361
21.383287
21.513872
21.572892
21.558145
21.477969
21.346181
21.182357
21.003374
20.822552
20.650908
20.492274
20.349057
20.219417
20.098594
19.981105
19.859183
19.724713
19.570067
19.387922
19.169633
18.908085
18.597382
18.231201
17.804660
17.314288
16.758640
16.136101
15.446053
14.690557
13.873155
12.998521
12.071175
11.097063
10.083784
9.039035
7.970070
6.885397
5.793487
4.701836
3.617936
2.548610
1.499926
0.477692
-0.512833
-1.467781
-2.383371
-3.256613
-4.085891
-4.869333
-5.606112
-6.296057
-6.938996
-7.535532
-8.086024
-8.591589
-9.053690
-9.473459
-9.852530
-10.192278
-10.494799
-10.761143
-10.993353
-11.192754
-11.359895
-11.497819
-11.606852
-11.687715
-11.741338
-11.769198
-11.771621
-11.748075
-11.700038
-11.627802
-11.530783
-11.408860
-11.262257
-11.090011
-10.892157
-10.668540
-10.418370
-10.141285
-9.837217
-9.505341
-9.145055
-8.755603
-8.336916
-7.889562
-7.412371
-6.905139
-6.368551
-5.802711
-5.207723
-4.583723
-3.931125
-3.251045
-2.544634
-1.812478
-1.055264
-0.275157
0.526468
1.348098
2.187551
3.043090
3.913050
4.794490
5.685503
6.583477
7.485833
8.390218
9.292987
10.192112
11.084259
11.966232
12.835659
13.688535
14.522024
15.332654
16.117075
16.871969
17.593297
18.278173
18.922693
19.523181
20.076183
20.577383
21.023242
21.410752
21.735461
21.994053
22.183159
22.299341
22.339937
22.300716
22.179825
21.974993
21.683145
21.302183
20.829633
20.264635
19.605111
18.850251
17.998905
17.050471
16.005567
14.863490
13.625425
12.293296
10.869253
9.355821
7.756611
6.077017
4.322198
2.498872
0.614498
-1.322639
-3.302141
-5.314418
-7.350104
-9.398233
-11.448974
-13.493975
-15.525742
-17.538775
-19.529440
-21.498338
-23.449104
-25.386318
-27.318978
-29.259827
-31.217846
-33.201946
-35.216509
-37.253277
-39.289917
-41.283770
-43.170335
-44.864124
-46.269451
-47.294057
-47.869005
-47.970253
-47.628374
-46.929981
-46.001380
-44.982326
-43.999450
-43.142870
-42.459129
-41.956537
-41.610963
-41.381193
-41.223109
-41.094269
-40.958373
-40.789453
-40.571490
-40.298083
-39.973047
-39.608490
-39.227563
-38.859655
-38.535392
-38.288659
-38.148793
-38.131082
-38.233533
-38.431395
-38.669552
-38.858280
-38.875381
-38.567523
-37.752853
-36.227554
-33.778097
-30.198456
-25.317339
-19.042643
-11.425755
-2.729805
6.522292
15.543845
23.107695
33.320798
31.650382
28.917335
27.391443
26.894273
26.782104
26.192529
24.974658
23.916581
23.752121
24.441190
25.486918
26.470147
27.207579
27.670376
27.888149
27.898556
27.726353
27.384577
26.882088
26.233236
25.463063
24.610900
23.730913
22.883648
22.129347
21.517524
21.081281
20.830991
20.752026
20.812008
20.965666
21.161561
21.352334
21.500793
21.582516
21.587939
21.520988
21.394888
21.226458
21.035255
20.837384
20.644987
20.466460
20.303907
20.156754
20.021237
19.891064
19.759018
19.616729
19.455156
19.266033
19.041316
18.772644
18.453297
18.077277
17.639203
17.135494
16.563518
15.922590
15.212871
14.435995
13.594970
12.694616
11.741017
10.740593
9.700364
8.628632
7.533999
6.424276
5.308039
4.194062
3.089658
2.001401
0.936183
-0.100669
-1.104100
-2.069661
-2.994498
-3.875457
-4.710536
-5.498772
-6.238748
-6.930455
-7.574649
-8.171545
-8.721985
-9.227267
-9.688569
-10.107565
-10.485974
-10.825670
-11.128346
-11.395618
-11.629186
-11.831001
-12.002130
-12.143946
-12.259080
-12.347412
-12.409636
-12.447542
-12.461798
-12.452457
-12.419510
-12.363860
-12.285514
-12.184163
-12.059697
-11.911951
-11.740152
-11.543725
-11.322660
-11.076408
-10.804419
-10.506091
-10.180514
-9.827249
-9.445737
-9.035738
-8.597381
-8.130056
-7.633204
-7.107169
-6.552054
-5.967988
-5.355598
-4.714944
-4.046809
-3.352575
-2.632708
-1.888470
-1.121347
-0.332432
0.476102
1.302381
2.144910
3.001421
3.869653
4.747647
5.632516
6.521879
7.413443
8.304181
9.191241
10.071753
10.943173
11.802709
12.646776
13.472549
14.277026
15.056979
15.809114
16.530150
17.217148
17.866077
18.473414
19.036435
19.550929
20.012849
20.419531
20.766772
21.050844
21.268385
21.416157
21.490876
21.488719
21.407297
21.243688
20.995305
20.659836
20.234430
19.717684
19.107752
18.403034
17.602716
16.706392
15.713556
14.623391
13.437221
12.156472
10.782434
9.317839
7.766081
6.131577
4.419200
2.634956
0.786495
-1.117944
-3.069011
-5.056625
-7.070999
-9.101366
-11.136759
-13.167882
-15.186407
-17.184960
-19.158615
-21.105862
-23.027865
-24.928171
-26.814783
-28.698658
-30.590069
-32.500150
-34.436960
-36.399912
-38.376926
-40.338150
-42.233312
-43.990418
-45.521157
-46.732015
-47.541250
-47.900663
-47.810704
-47.327794
-46.557226
-45.631775
-44.684613
-43.823968
-43.117558
-42.591295
-42.234567
-42.013064
-41.883803
-41.801770
-41.727257
-41.629318
-41.486827
-41.289291
-41.035713
-40.734554
-40.405290
-40.074888
-39.774755
-39.538966
-39.398567
-39.376564
-39.479770
-39.693818
-39.976399
-40.251941
-40.411112
-40.312232
-39.783933
-38.628403
-36.632779
-33.583659
-29.287567
-23.608597
-16.526845
-8.204535
0.951582
10.261564
14.853161
30.388135
29.155569
27.287283
26.540733
26.484197
26.262677
25.371303
24.317729
23.960691
24.512489
25.553354
26.608621
27.434212
27.973791
28.251082
28.304137
28.162879
27.843094
27.353933
26.708321
25.930165
25.059217
24.149427
23.263261
22.464816
21.809888
21.333325
21.048386
20.944346
20.986746
21.128021
21.314454
21.494116
21.626299
21.685869
21.662692
21.560526
21.394089
21.184411
20.952725
20.716828
20.490263
20.281736
20.093980
19.924742
19.768772
19.618190
19.463415
19.294305
19.101436
18.874373
18.603613
18.281180
17.899428
17.452486
16.935199
16.344542
15.679621
14.939971
14.127682
13.246568
12.301933
11.299446
10.246860
9.153035
8.026864
6.877508
5.714342
4.546932
3.383921
2.233396
1.103333
0.000914
-1.068739
-2.100511
-3.090108
-4.033953
-4.929967
-5.776493
-6.572188
-7.316813
-8.010462
-8.653573
-9.246972
-9.792394
-10.291317
-10.745185
-11.156481
-11.526967
-11.858302
-12.153236
-12.414423
-12.643342
-12.841333
-13.011044
-13.154184
-13.271638
-13.365573
-13.437757
-13.488088
-13.517220
-13.526973
-13.517538
-13.488621
-13.440464
-13.373281
-13.286926
-13.180901
-13.055205
-12.908877
-12.741117
-12.551702
-12.339712
-12.104692
-11.845833
-11.562132
-11.252804
-10.917190
-10.555099
-10.165828
-9.748971
-9.304144
-8.830752
-8.328941
-7.798764
-7.240109
-6.653834
-6.040215
-5.399218
-4.732431
-4.040286
-3.324200
-2.585479
-1.825205
-1.045829
-0.248672
0.564889
1.391958
2.230655
3.078942
3.934172
4.793966
5.655804
6.517531
7.376010
8.228533
9.072816
9.906434
10.726199
11.529310
12.313671
13.076119
13.813809
14.524430
15.205043
15.852098
16.462615
17.034135
17.563049
18.045601
18.479189
18.860125
19.184293
19.448393
19.649324
19.783269
19.846507
19.835980
19.748276
19.580482
19.329908
18.993400
18.568912
18.054298
17.447047
16.746282
15.951378
15.060674
14.073441
12.990494
11.811912
10.538795
9.173324
7.717657
6.174991
4.550051
2.848029
1.075181
-0.760451
-2.650273
-4.584539
-6.553128
-8.545073
-10.547975
-12.550894
-14.543527
-16.515897
-18.460106
-20.370384
-22.243625
-24.080507
-25.885976
-27.667246
-29.435158
-31.202889
-32.983738
-34.788636
-36.622033
-38.476845
-40.329277
-42.135292
-43.827956
-45.321588
-46.523295
-47.349626
-47.747938
-47.715171
-47.305336
-46.622656
-45.799299
-44.967919
-44.235067
-43.665043
-43.278375
-43.060382
-42.974650
-42.974629
-43.014227
-43.053065
-43.060584
-43.017428
-42.912825
-42.746655
-42.531606
-42.288873
-42.047571
-41.842382
-41.707621
-41.676857
-41.773403
-42.002249
-42.344184
-42.752043
-43.143562
-43.401247
-43.375635
-42.884824
-41.723845
-39.671824
-36.504811
-32.020554
-26.081961
-18.674408
-9.981706
-0.455549
4.441319
28.068215
27.247848
26.177525
26.027785
26.079595
25.580122
24.651917
24.139193
24.520421
25.528862
26.656468
27.584846
28.218014
28.569011
28.679256
28.580672
28.292553
27.826311
27.193907
26.417461
25.534336
24.599334
23.678519
22.837467
22.135277
21.614853
21.292472
21.158459
21.180277
21.308198
21.484870
21.655293
21.774965
21.814589
21.763716
21.627709
21.422714
21.171314
20.897770
20.623736
20.363244
20.124624
19.911319
19.720597
19.544373
19.373493
19.196891
19.002173
18.777508
18.512299
18.195590
17.818427
17.374012
16.855539
16.259485
15.583633
14.827656
13.993651
13.085219
12.108367
11.070097
9.978601
8.843029
7.674011
6.482221
5.277584
4.070360
2.870114
1.685861
0.525866
-0.602840
-1.694397
-2.742987
-3.745104
-4.697972
-5.598730
-6.445685
-7.238630
-7.977567
-8.662442
-9.293961
-9.874186
-10.405145
-10.887852
-11.324464
-11.717612
-12.069983
-12.384020
-12.662187
-12.906488
-13.119664
-13.304955
-13.463846
-13.598023
-13.709832
-13.801145
-13.873063
-13.927193
-13.964669
-13.985929
-13.991609
-13.982191
-13.957949
-13.918857
-13.864908
-13.795560
-13.710227
-13.608353
-13.489919
-13.353499
-13.197942
-13.023324
-12.828263
-12.611572
-12.372565
-12.110595
-11.824651
-11.513768
-11.177311
-10.814628
-10.425502
-10.009205
-9.565185
-9.093417
-8.593987
-8.066800
-7.512089
-6.930489
-6.321975
-5.687895
-5.028955
-4.345979
-3.640514
-2.914012
-2.168262
-1.404740
-0.625088
0.168184
0.972825
1.786644
2.607269
3.432336
4.259243
5.085591
5.908862
6.726307
7.535383
8.333862
9.119022
9.888379
10.639921
11.371115
12.079502
12.763242
13.419510
14.045907
14.640028
15.199216
15.720955
16.202639
16.641254
17.033722
17.376452
17.666315
17.900184
18.074054
18.184668
18.228357
18.201331
18.100324
17.921857
17.662827
17.320819
16.892748
16.376157
15.769250
15.070445
14.277576
13.389906
12.407829
11.330400
10.158177
8.892406
7.534876
6.087751
4.554554
2.940262
1.249609
-0.510135
-2.331192
-4.205219
-6.121397
-8.068631
-10.035028
-12.008214
-13.976046
-15.926374
-17.848567
-19.733946
-21.575210
-23.369053
-25.116173
-26.819870
-28.487970
-30.132433
-31.767457
-33.408672
-35.069871
-36.759244
-38.475337
-40.200321
-41.895232
-43.498735
-44.929545
-46.095757
-46.913645
-47.328929
-47.336491
-46.989460
-46.390484
-45.671236
-44.962944
-44.367521
-43.943623
-43.706514
-43.636315
-43.691923
-43.824454
-43.986602
-44.138052
-44.249826
-44.302160
-44.285399
-44.203929
-44.071441
-43.911273
-43.756154
-43.642335
-43.607587
-43.686947
-43.902327
-44.254432
-44.721736
-45.250611
-45.749874
-46.093613
-46.122736
-45.647827
-44.453614
-42.309652
-38.982733
-34.264843
-28.016069
-20.232392
-11.130795
-6.293874
26.282631
25.853142
25.474157
25.651825
25.549297
24.874812
24.284103
24.476242
25.412809
26.602425
27.646297
28.392134
28.835844
29.017310
28.974206
28.729544
28.296927
27.687726
26.922236
26.036989
25.083949
24.129886
23.246848
22.497857
21.929371
21.564058
21.396659
21.394966
21.507719
21.675282
21.837679
21.946274
21.969906
21.894903
21.726318
21.482842
21.190160
20.875479
20.561966
20.266775
19.999134
19.760660
19.547690
19.352526
19.162363
18.963770
18.743659
18.488307
18.185098
17.822724
17.391224
16.883905
16.295800
15.622638
14.864092
14.021923
13.100051
12.104362
11.042521
9.924170
8.759475
7.559212
6.335343
5.099890
3.863457
2.636254
1.428154
0.247870
-0.897421
-2.001232
-3.058243
-4.064649
-5.017439
-5.914382
-6.754136
-7.536580
-8.261414
-8.929429
-9.542722
-10.102048
-10.609160
-11.067436
-11.479128
-11.846641
-12.172588
-12.460260
-12.713026
-12.933317
-13.124399
-13.288567
-13.428528
-13.547357
-13.646628
-13.728291
-13.794786
-13.847249
-13.886555
-13.914500
-13.931421
-13.937505
-13.933200
-13.918419
-13.892983
-13.856805
-13.809360
-13.749645
-13.676825
-13.590083
-13.488724
-13.371657
-13.237566
-13.085489
-12.914807
-12.723793
-12.511537
-12.277548
-12.020442
-11.739258
-11.433274
-11.102102
-10.744961
-10.361112
-9.950538
-9.512800
-9.047434
-8.554921
-8.035366
-7.488913
-6.916130
-6.317893
-5.695156
-5.048496
-4.379304
-3.689092
-2.979356
-2.251824
-1.508324
-0.751239
0.017396
0.795423
1.580050
2.368699
3.159410
3.949090
4.735024
5.515002
6.286464
7.046669
7.793313
8.523922
9.236322
9.929017
10.599593
11.246219
11.866764
12.459570
13.022530
13.553730
14.051742
14.514212
14.938502
15.322643
15.663740
15.959034
16.205544
16.399488
16.538314
16.617837
16.634165
16.584263
16.463861
16.269444
15.998177
15.646373
15.211041
14.689930
14.080375
13.380067
12.587353
11.701874
10.723037
9.650084
8.482932
7.223452
5.873767
4.435098
2.911371
1.307400
-0.371085
-2.117621
-3.924714
-5.781778
-7.678319
-9.603254
-11.543407
-13.485502
-15.416056
-17.322145
-19.192382
-21.016142
-22.786086
-24.498150
-26.151189
-27.748913
-29.299675
-30.815315
-32.311495
-33.805772
-35.314336
-36.849848
-38.415231
-39.997384
-41.563837
-43.058711
-44.404009
-45.511601
-46.298531
-46.710773
-46.742650
-46.447020
-45.927856
-45.314847
-44.734953
-44.284776
-44.015872
-43.935339
-44.016473
-44.215027
-44.479691
-44.761386
-45.021641
-45.231525
-45.372135
-45.437577
-45.433414
-45.376109
-45.292800
-45.218567
-45.192563
-45.255402
-45.441964
-45.771959
-46.244882
-46.833465
-47.474793
-48.069227
-48.483063
-48.545992
-48.058369
-46.797041
-44.520956
-40.987865
-35.981736
-29.364851
-21.153099
-16.662663
24.975062
24.895204
25.024345
25.242651
24.925410
24.375605
24.387653
25.208063
26.437251
27.605152
28.483962
29.039481
29.309778
29.337044
29.149038
28.761408
28.186881
27.443201
26.564030
25.601107
24.620516
23.696436
22.898352
22.279327
21.867430
21.661249
21.631851
21.727865
21.885553
22.041815
22.143174
22.153254
22.057000
21.858948
21.579113
21.245974
20.889176
20.535989
20.205719
19.907752
19.644391
19.410789
19.196152
18.987419
18.768786
18.523875
18.238205
17.897787
17.490297
17.006120
16.437634
15.780773
15.034189
14.197890
13.276027
12.274683
11.202642
10.069639
8.886520
7.666475
6.421801
5.164761
3.907679
2.662232
1.438414
0.245404
-0.908738
-2.017602
-3.076075
-4.080091
-5.026471
-5.913342
-6.740146
-7.505859
-8.210894
-8.856850
-9.444706
-9.976576
-10.455218
-10.882962
-11.262738
-11.597975
-11.891705
-12.147547
-12.368741
-12.559178
-12.722152
-12.860703
-12.978467
-13.077669
-13.161153
-13.231533
-13.290183
-13.338985
-13.380216
-13.414297
-13.441529
-13.463125
-13.478962
-13.489154
-13.493373
-13.491045
-13.481643
-13.464139
-13.437534
-13.400788
-13.353138
-13.293036
-13.219081
-13.130509
-13.025799
-12.903635
-12.763142
-12.603056
-12.422045
-12.219130
-11.993399
-11.743864
-11.470054
-11.171279
-10.846475
-10.495066
-10.117447
-9.712982
-9.281062
-8.822459
-8.337200
-7.825343
-7.287424
-6.724291
-6.136822
-5.525626
-4.892028
-4.237367
-3.563337
-2.871527
-2.163621
-1.442069
-0.708968
0.033680
0.783057
1.536387
2.291574
3.045677
3.795836
4.539739
5.274568
5.997597
6.706482
7.398585
8.071799
8.724466
9.354507
9.960065
10.539920
11.092543
11.616104
12.109690
12.572160
13.001872
13.397159
13.756568
14.078588
14.361009
14.601263
14.796574
14.944199
15.040497
15.082157
15.065847
14.987381
14.842789
14.628573
14.340858
13.975854
13.530855
13.002061
12.386775
11.683149
10.889602
10.004811
9.027760
7.957859
6.795072
5.541839
4.198840
2.767707
1.253141
-0.340218
-2.007153
-3.741194
-5.533154
-7.373229
-9.250942
-11.153276
-13.066746
-14.977519
-16.870838
-18.732671
-20.550192
-22.312497
-24.010342
-25.638684
-27.196359
-28.686223
-30.116742
-31.500783
-32.855112
-34.198709
-35.550035
-36.925242
-38.331450
-39.760430
-41.185543
-42.555440
-43.797492
-44.826949
-45.563544
-45.954336
-45.996310
-45.744271
-45.301016
-44.795325
-44.349204
-44.050589
-43.941698
-44.020228
-44.254050
-44.593725
-44.985243
-45.381179
-45.742591
-46.040919
-46.260471
-46.398287
-46.461431
-46.470270
-46.455261
-46.454020
-46.510169
-46.665305
-46.954588
-47.395545
-47.983461
-48.684702
-49.426757
-50.101686
-50.564126
-50.634291
-50.102777
-48.735154
-46.280644
-42.486551
-37.131930
-30.085728
-26.131158
24.088071
24.270646
24.660854
24.737928
24.371687
24.259277
24.922986
26.152845
27.444370
28.477363
29.168846
29.546981
29.660370
29.542856
29.213747
28.685967
27.975999
27.114221
26.150026
25.149198
24.188312
23.341512
22.668255
22.204557
21.955074
21.893579
21.969450
22.117024
22.268397
22.364849
22.365785
22.252396
22.027765
21.713479
21.340724
20.943203
20.550082
20.182921
19.854284
19.566019
19.311647
19.079247
18.852674
18.614689
18.346963
18.032024
17.655514
17.204112
16.668108
16.041316
15.319747
14.503668
13.596396
12.603148
11.533109
10.397330
9.207912
7.977864
6.720971
5.451754
4.183002
2.926762
1.693878
0.494320
-0.663183
-1.772090
-2.827013
-3.823957
-4.759956
-5.632743
-6.441586
-7.186529
-7.868087
-8.487077
-9.045646
-9.546159
-9.991004
-10.383825
-10.727654
-11.026309
-11.283895
-11.504212
-11.691496
-11.849864
-11.983130
-12.095316
-12.190050
-12.270441
-12.339686
-12.400252
-12.454511
-12.504447
-12.551238
-12.596001
-12.639681
-12.682502
-12.724274
-12.764913
-12.804210
-12.841411
-12.875209
-12.904744
-12.929072
-12.946516
-12.955677
-12.955093
-12.943681
-12.919963
-12.882118
-12.828899
-12.758957
-12.671193
-12.563802
-12.435958
-12.286708
-12.114626
-11.919126
-11.699342
-11.454474
-11.183714
-10.886589
-10.563014
-10.212945
-9.835687
-9.431077
-8.999904
-8.542366
-8.058525
-7.548723
-7.014042
-6.455447
-5.873856
-5.270059
-4.645527
-4.002252
-3.341576
-2.665122
-1.975014
-1.273579
-0.562881
0.154486
0.875943
1.599016
2.320903
3.038768
3.750051
4.451537
5.140494
5.814911
6.471909
7.109203
7.724686
8.316134
8.882326
9.421776
9.933021
10.414732
10.866400
11.287278
11.676696
12.033862
12.357558
12.647154
12.901510
13.119558
13.298859
13.437135
13.532058
13.580851
13.580138
13.525913
13.414191
13.241249
13.003333
12.696051
12.315605
11.857784
11.319202
10.697437
9.989617
9.193389
8.307610
7.331453
6.263691
5.105175
3.856772
2.519118
1.095693
-0.409626
-1.993326
-3.649588
-5.370653
-7.148202
-8.972508
-10.831488
-12.711943
-14.599771
-16.479891
-18.337006
-20.155687
-21.922091
-23.622961
-25.249129
-26.794760
-28.257061
-29.639156
-30.949638
-32.202080
-33.413704
-34.604510
-35.796506
-37.008718
-38.251003
-39.520692
-40.795318
-42.028919
-43.154381
-44.090458
-44.760535
-45.116563
-45.157730
-44.941099
-44.571575
-44.174703
-43.865870
-43.723293
-43.776744
-44.015047
-44.398303
-44.872958
-45.384191
-45.883754
-46.334249
-46.709905
-46.996726
-47.193024
-47.311441
-47.374903
-47.416955
-47.481006
-47.611737
-47.853310
-48.238873
-48.783741
-49.479564
-50.282190
-51.110884
-51.846773
-52.333146
-52.379825
-51.766382
-50.247472
-47.560993
-43.444738
-37.674967
-34.352711
23.533987
23.847112
24.263195
24.208086
24.078369
24.570950
25.749394
27.149196
28.353197
29.206906
29.717370
29.934920
29.903391
29.646492
29.178127
28.514581
27.682681
26.728094
25.715820
24.723044
23.828559
23.099609
22.579314
22.280247
22.181690
22.233808
22.369781
22.517588
22.612510
22.607904
22.481547
22.235278
21.889351
21.478270
21.039586
20.606085
20.202772
19.842615
19.528527
19.253865
19.004073
18.761164
18.505107
18.215381
17.873098
17.462008
16.969057
16.384011
15.701542
14.919923
14.040605
13.069717
12.015670
10.889422
9.704214
8.474330
7.214944
5.940915
4.666543
3.405198
2.169118
0.968717
-0.188175
-1.293765
-2.341427
-3.328153
-4.250850
-5.106905
-5.895657
-6.617097
-7.271990
-7.862054
-8.388949
-8.854770
-9.263660
-9.618936
-9.924431
-10.185146
-10.405222
-10.589636
-10.743028
-10.870339
-10.976501
-11.065795
-11.142311
-11.209537
-11.270833
-11.329260
-11.387222
-11.446413
-11.508423
-11.574214
-11.644267
-11.718557
-11.796920
-11.878703
-11.963073
-12.049333
-12.136444
-12.222249
-12.305330
-12.384389
-12.457562
-12.523439
-12.580017
-12.625356
-12.658209
-12.677062
-12.679976
-12.665315
-12.631930
-12.578935
-12.504335
-12.407170
-12.286631
-12.141523
-11.971391
-11.775196
-11.552223
-11.302405
-11.024994
-10.719946
-10.387477
-10.027148
-9.639122
-9.223976
-8.782242
-8.314367
-7.820978
-7.302797
-6.761088
-6.197018
-5.611508
-5.006208
-4.382647
-3.742612
-3.088020
-2.420477
-1.742150
-1.055402
-0.362775
0.333409
1.030804
1.726284
2.417166
3.100950
3.774396
4.434745
5.079807
5.706583
6.312613
6.895752
7.453591
7.984928
8.487735
8.960543
9.402552
9.813230
10.191992
10.538691
10.853450
11.135648
11.384959
11.601366
11.785084
11.934402
12.048084
12.125382
12.164146
12.160993
12.113033
12.017096
11.868990
11.664605
11.399920
11.070647
10.671872
10.199717
9.650583
9.020619
8.306905
7.507360
6.620007
5.643567
4.577378
3.421577
2.177127
0.845419
-0.570924
-2.068828
-3.643392
-5.288818
-6.998171
-8.762237
-10.570997
-12.412171
-14.271805
-16.135219
-17.986448
-19.809000
-21.586421
-23.302536
-24.944180
-26.501537
-27.966287
-29.335088
-30.611480
-31.803940
-32.925703
-33.995273
-35.035094
-36.068624
-37.117356
-38.195047
-39.302330
-40.421703
-41.512865
-42.512193
-43.343220
-43.935674
-44.245444
-44.277054
-44.091584
-43.794652
-43.509558
-43.341901
-43.357000
-43.572857
-43.967362
-44.493543
-45.093576
-45.712149
-46.302901
-46.829353
-47.267001
-47.605073
-47.846181
-48.005309
-48.110058
-48.198738
-48.317404
-48.514583
-48.834149
-49.308504
-49.950378
-50.743508
-51.634667
-52.532246
-53.305517
-53.786398
-53.772674
-53.032561
-51.310237
-48.331793
-43.825515
-41.157516
23.182896
23.491441
23.810702
23.808580
24.160478
25.233216
26.705545
28.089947
29.133424
29.803390
30.148569
30.219834
30.050071
29.656495
29.053042
28.264436
27.332243
26.317898
25.299969
24.361220
23.575639
22.995208
22.640988
22.498665
22.522632
22.645062
22.789207
22.885470
22.880434
22.746378
22.482260
22.109101
21.662220
21.182812
20.708819
20.267643
19.875630
19.536029
19.240898
18.974211
18.715550
18.442452
18.132334
17.764211
17.320595
16.788167
16.157679
15.424432
14.588227
13.653242
12.628086
11.523974
10.354312
9.134937
7.881653
6.610151
5.336741
4.076161
2.840802
1.641665
0.488966
-0.609397
-1.648792
-2.623943
-3.530897
-4.368914
-5.136767
-5.833613
-6.460388
-7.019783
-7.513447
-7.944327
-8.316532
-8.633946
-8.901578
-9.124920
-9.309420
-9.460578
-9.584211
-9.685887
-9.770678
-9.843920
-9.910475
-9.974075
-10.038439
-10.106362
-10.179852
-10.261206
-10.351591
-10.451377
-10.560986
-10.680056
-10.807977
-10.943640
-11.085775
-11.233082
-11.384042
-11.536540
-11.688850
-11.838821
-11.984702
-12.124465
-12.255832
-12.377248
-12.486848
-12.582424
-12.662436
-12.725357
-12.769381
-12.792961
-12.794835
-12.773927
-12.728829
-12.658492
-12.561825
-12.438038
-12.286674
-12.106935
-11.898176
-11.660354
-11.393263
-11.096731
-10.770733
-10.415568
-10.031883
-9.619899
-9.180141
-8.713950
-8.222091
-7.705139
-7.164908
-6.602626
-6.019728
-5.417874
-4.798334
-4.163610
-3.515703
-2.856153
-2.187408
-1.511805
-0.831699
-0.149385
0.532620
1.211334
1.884273
2.548722
3.201965
3.841467
4.464117
5.067330
5.648680
6.205549
6.736052
7.238438
7.710464
8.150497
8.558046
8.932443
9.272612
9.578820
9.851445
10.090504
10.296814
10.470795
10.612689
10.722744
10.801150
10.847417
10.860548
10.838824
10.780243
10.682502
10.541940
10.354381
10.116026
9.822502
9.468841
9.050413
8.562231
8.000774
7.362020
6.641929
5.838078
4.948414
3.971416
2.906129
1.752726
0.511670
-0.815088
-2.225279
-3.715577
-5.281377
-6.917393
-8.615281
-10.366646
-12.160978
-13.984829
-15.824998
-17.665279
-19.489262
-21.279521
-23.017433
-24.686607
-26.273005
-27.763621
-29.149776
-30.428914
-31.602761
-32.679709
-33.674203
-34.605627
-35.497559
-36.376013
-37.263989
-38.178316
-39.124275
-40.087760
-41.032203
-41.899717
-42.619361
-43.125585
-43.381745
-43.398656
-43.242652
-43.021171
-42.850652
-42.826105
-42.999588
-43.374741
-43.918796
-44.576860
-45.289638
-46.002635
-46.668459
-47.253621
-47.736620
-48.109019
-48.377411
-48.561666
-48.693545
-48.816082
-48.978999
-49.232878
-49.622644
-50.178545
-50.907899
-51.786323
-52.749950
-53.694578
-54.476751
-54.916715
-54.800954
-53.885162
-51.901122
-48.561688
-46.516270
22.888607
23.119734
23.387023
23.688685
24.617234
26.107360
27.664798
28.924803
29.786521
30.285040
30.480308
30.414835
30.110277
29.582342
28.851939
27.955959
26.952674
25.918847
24.940517
24.098529
23.455340
23.040400
22.848355
22.838404
22.942925
23.083719
23.183394
23.182191
23.046450
22.770302
22.373270
21.893519
21.375278
20.860672
20.381892
19.956623
19.590287
19.274541
18.991225
18.717707
18.429098
18.100109
17.707847
17.234172
16.665402
15.992763
15.213550
14.329807
13.347953
12.278808
11.136902
9.938014
8.699115
7.438028
6.171871
4.916258
3.685059
2.491284
1.344463
0.252880
-0.776125
-1.738051
-2.630096
-3.449663
-4.195491
-4.867949
-5.467707
-5.996646
-6.457226
-6.853785
-7.190267
-7.471296
-7.703670
-7.893412
-8.045996
-8.169362
-8.270042
-8.353690
-8.426614
-8.494518
-8.562466
-8.634393
-8.714329
-8.804920
-8.908298
-9.025976
-9.158555
-9.306284
-9.468819
-9.645696
-9.835928
-10.037657
-10.248969
-10.468177
-10.693169
-10.921564
-11.151514
-11.380433
-11.606121
-11.826550
-12.039331
-12.242306
-12.433389
-12.610679
-12.772458
-12.916706
-13.041774
-13.146261
-13.228474
-13.286823
-13.320165
-13.327418
-13.307309
-13.258886
-13.181245
-13.073647
-12.935345
-12.766064
-12.565263
-12.332588
-12.068368
-11.772308
-11.444359
-11.085328
-10.695876
-10.276270
-9.827180
-9.350273
-8.846632
-8.317005
-7.763488
-7.187586
-6.590904
-5.975576
-5.343386
-4.696674
-4.037683
-3.368774
-2.692234
-2.010367
-1.325981
-0.641742
0.040022
0.716682
1.385221
2.043019
2.687711
3.316695
3.926919
4.515858
5.081225
5.620262
6.131138
6.611861
7.060298
7.475049
7.854884
8.199015
8.506641
8.777865
9.012842
9.212028
9.376592
9.507331
9.605322
9.672015
9.708227
9.714174
9.690662
9.637684
9.553864
9.437957
9.287796
9.099911
8.870845
8.596338
8.271741
7.892661
7.453110
6.948463
6.374357
5.725462
4.998333
4.190143
3.297979
2.320164
1.255453
0.103587
-1.133799
-2.455813
-3.860470
-5.343902
-6.901710
-8.527844
-10.215326
-11.954591
-13.734091
-15.542482
-17.364579
-19.183677
-20.982684
-22.742458
-24.443766
-26.069127
-27.602353
-29.029684
-30.341768
-31.534340
-32.609492
-33.575813
-34.447719
-35.245722
-35.995069
-36.722894
-37.455024
-38.211246
-38.999057
-39.808265
-40.606874
-41.340757
-41.945121
-42.361401
-42.560033
-42.560780
-42.436288
-42.292873
-42.240381
-42.361633
-42.691129
-43.219338
-43.902276
-44.679753
-45.490865
-46.279853
-47.002634
-47.627579
-48.135628
-48.523477
-48.802586
-48.995516
-49.139953
-49.283824
-49.480268
-49.782781
-50.234453
-50.862526
-51.668963
-52.617741
-53.633152
-54.598601
-55.358359
-55.718203
-55.451258
-54.303337
-51.990223
-50.505128
22.552502
22.734330
23.127133
23.919288
25.358576
27.058553
28.553096
29.641611
30.326615
30.670582
30.727659
30.529642
30.092858
29.436100
28.592634
27.614519
26.576086
25.566312
24.671570
23.962822
23.482289
23.233072
23.182200
23.265203
23.400222
23.505336
23.512503
23.380526
23.098818
22.684205
22.174634
21.619304
21.064310
20.546687
20.088256
19.693966
19.356625
19.057128
18.769095
18.465594
18.119719
17.706111
17.205220
16.603735
15.894120
15.074827
14.150119
13.130059
12.028319
10.860754
9.645831
8.402850
7.149909
5.903783
4.680705
3.494191
2.354649
1.271780
0.252597
-0.697582
-1.574468
-2.376101
-3.101631
-3.750878
-4.324358
-4.824157
-5.253766
-5.618057
-5.921497
-6.170362
-6.371541
-6.531739
-6.659832
-6.762978
-6.848276
-6.923752
-6.995584
-7.069556
-7.151073
-7.244491
-7.353137
-7.479469
-7.625711
-7.792543
-7.980127
-8.188010
-8.415262
-8.660680
-8.922366
-9.198669
-9.487355
-9.785734
-10.091048
-10.401252
-10.713931
-11.025939
-11.335086
-11.639266
-11.935944
-12.222971
-12.498432
-12.759937
-13.005321
-13.233131
-13.441744
-13.629243
-13.793961
-13.934669
-14.049949
-14.138246
-14.198623
-14.229920
-14.230900
-14.200755
-14.138599
-14.043779
-13.915514
-13.753306
-13.556982
-13.326241
-13.061178
-12.761750
-12.427932
-12.060556
-11.660259
-11.227376
-10.763042
-10.268630
-9.745379
-9.194527
-8.618031
-8.017827
-7.395821
-6.754282
-6.095591
-5.422196
-4.736505
-4.041532
-3.339840
-2.634083
-1.927535
-1.223119
-0.523343
0.168992
0.850378
1.518290
2.170476
2.803687
3.415424
4.003426
4.564986
5.097587
5.599200
6.067943
6.502115
6.900177
7.260549
7.582423
7.865102
8.108441
8.312680
8.478197
8.606092
8.697311
8.753683
8.777255
8.769134
8.730911
8.664441
8.570971
8.450749
8.303820
8.128970
7.924182
7.687683
7.415728
7.103634
6.747353
6.341651
5.880693
5.358955
4.771090
4.112536
3.378619
2.565608
1.671054
0.692492
-0.371506
-1.520888
-2.755138
-4.073362
-5.472794
-6.949266
-8.498884
-10.116038
-11.792632
-13.519764
-15.286812
-17.080473
-18.885324
-20.684640
-22.459839
-24.191057
-25.858542
-27.443191
-28.926928
-30.294556
-31.536231
-32.647183
-33.628800
-34.489530
-35.244368
-35.914618
-36.527274
-37.111409
-37.694723
-38.299164
-38.934993
-39.594775
-40.250107
-40.852318
-41.341629
-41.666884
-41.808550
-41.795866
-41.706431
-41.645839
-41.715299
-41.981557
-42.463886
-43.136567
-43.945281
-44.826240
-45.716772
-46.562481
-47.321990
-47.965427
-48.478736
-48.863960
-49.133796
-49.318833
-49.462132
-49.614970
-49.835321
-50.176448
-50.681889
-51.374408
-52.244548
-53.246416
-54.291852
-55.248815
-55.946623
-56.179358
-55.707839
-54.262798
-53.261351
22.172469
22.414364
23.144586
24.476087
26.259128
27.989147
29.338918
30.246963
30.770231
30.974221
30.900859
30.572747
30.007199
29.232592
28.297297
27.269598
26.237240
25.294160
24.520627
23.969559
23.657044
23.558125
23.612848
23.739472
23.850661
23.870237
23.748048