/*--------------------------------*- C++ -*----------------------------------*\
| =========                 |                                                 |
| \\      /  F ield         | OpenFOAM: The Open Source CFD Toolbox           |
|  \\    /   O peration     | Version:  v2012                                 |
|   \\  /    A nd           | Website:  www.openfoam.com                      |
|    \\/     M anipulation  |                                                 |
\*---------------------------------------------------------------------------*/
FoamFile
{
    version     2.0;
    format      ascii;
    class       volVectorField;
    location    "1";
    object      U;
}
// * * * * * * * * * * * * * * * * * * * * * * * * * * * * * * * * * * * * * //

dimensions      [0 1 -1 0 0 0 0];


internalField   nonuniform List<vector> 
65536
(
(-0.179738833 0.365149895 0)
(-0.344359865 0.212616108 0)
(-0.317595090 0.099889056 0)
(-0.296430755 0.019291315 0)
(-0.278596886 -0.034224544 0)
(-0.262368555 -0.060854064 0)
(-0.247023320 -0.056640187 0)
(-0.234505564 -0.023811405 0)
(-0.228666136 0.019290344 0)
(-0.231213016 0.048308314 0)
(-0.239710353 0.052518159 0)
(-0.249846393 0.038025357 0)
(-0.258294643 0.016250074 0)
(-0.263586871 -0.005071376 0)
(-0.265613177 -0.023132030 0)
(-0.264929503 -0.037930360 0)
(-0.262287950 -0.050329339 0)
(-0.258390494 -0.061108469 0)
(-0.253816753 -0.070681200 0)
(-0.249004753 -0.079120899 0)
(-0.244252387 -0.086329632 0)
(-0.239726571 -0.092186896 0)
(-0.235472855 -0.096657870 0)
(-0.231426887 -0.099820540 0)
(-0.227450994 -0.101869699 0)
(-0.223373873 -0.103060076 0)
(-0.219029283 -0.103633426 0)
(-0.214309215 -0.103756752 0)
(-0.209191136 -0.103467937 0)
(-0.203753430 -0.102671929 0)
(-0.198173491 -0.101139407 0)
(-0.192699950 -0.098579393 0)
(-0.187625304 -0.094715502 0)
(-0.183241462 -0.089344172 0)
(-0.179799707 -0.082419517 0)
(-0.177479082 -0.074081651 0)
(-0.176372107 -0.064639808 0)
(-0.176477282 -0.054555044 0)
(-0.177705303 -0.044383983 0)
(-0.179899973 -0.034692544 0)
(-0.182854699 -0.025999264 0)
(-0.186338308 -0.018725036 0)
(-0.190123201 -0.013139493 0)
(-0.193998767 -0.009363885 0)
(-0.197780901 -0.007386577 0)
(-0.201328203 -0.007062822 0)
(-0.204538142 -0.008166755 0)
(-0.207340124 -0.010419388 0)
(-0.209699134 -0.013508824 0)
(-0.211607959 -0.017134742 0)
(-0.213070396 -0.021019009 0)
(-0.214105700 -0.024906364 0)
(-0.214739714 -0.028588554 0)
(-0.214993566 -0.031906076 0)
(-0.214895407 -0.034733634 0)
(-0.214466591 -0.036983192 0)
(-0.213731799 -0.038596951 0)
(-0.212720537 -0.039547723 0)
(-0.211460349 -0.039828094 0)
(-0.209986116 -0.039440962 0)
(-0.208339851 -0.038408835 0)
(-0.206572878 -0.036763226 0)
(-0.204743808 -0.034543150 0)
(-0.202918398 -0.031798859 0)
(-0.201172379 -0.028575240 0)
(-0.199596467 -0.024930094 0)
(-0.198276194 -0.020924944 0)
(-0.197308313 -0.016623387 0)
(-0.196793411 -0.012089271 0)
(-0.196822170 -0.007382428 0)
(-0.197491265 -0.002575224 0)
(-0.198895413 0.002270790 0)
(-0.201121531 0.007098090 0)
(-0.204245540 0.011844889 0)
(-0.208335827 0.016464920 0)
(-0.213449396 0.020909163 0)
(-0.219633602 0.025131175 0)
(-0.226927263 0.029103166 0)
(-0.235351107 0.032797964 0)
(-0.244913686 0.036196605 0)
(-0.255617966 0.039281966 0)
(-0.267451926 0.042047749 0)
(-0.280390519 0.044496810 0)
(-0.294400738 0.046628397 0)
(-0.309444212 0.048452206 0)
(-0.325473781 0.049978903 0)
(-0.342428596 0.051223639 0)
(-0.360246559 0.052205629 0)
(-0.378865435 0.052937230 0)
(-0.398210604 0.053441421 0)
(-0.418207479 0.053740270 0)
(-0.438780088 0.053847325 0)
(-0.459846455 0.053781256 0)
(-0.481329600 0.053562658 0)
(-0.503148035 0.053207818 0)
(-0.525216315 0.052731534 0)
(-0.547452881 0.052150123 0)
(-0.569781760 0.051474926 0)
(-0.592123752 0.050721655 0)
(-0.614399207 0.049904727 0)
(-0.636525317 0.049031043 0)
(-0.658429335 0.048114505 0)
(-0.680046075 0.047165439 0)
(-0.701292974 0.046193939 0)
(-0.722098777 0.045214979 0)
(-0.742401523 0.044236417 0)
(-0.762129647 0.043268786 0)
(-0.781217200 0.042323883 0)
(-0.799599170 0.041417113 0)
(-0.817214711 0.040554963 0)
(-0.834009322 0.039749216 0)
(-0.849924272 0.039019219 0)
(-0.864903013 0.038373754 0)
(-0.878892295 0.037823207 0)
(-0.891843898 0.037379127 0)
(-0.903707623 0.037051076 0)
(-0.914443610 0.036852618 0)
(-0.924013388 0.036799201 0)
(-0.932370053 0.036891104 0)
(-0.939481551 0.037137712 0)
(-0.945321725 0.037548676 0)
(-0.949860428 0.038124703 0)
(-0.953071400 0.038871119 0)
(-0.954937641 0.039788540 0)
(-0.955441772 0.040873613 0)
(-0.954576473 0.042125249 0)
(-0.952333902 0.043535593 0)
(-0.948706534 0.045090314 0)
(-0.943706820 0.046782985 0)
(-0.937336740 0.048597453 0)
(-0.929600109 0.050509957 0)
(-0.920525026 0.052503227 0)
(-0.910125889 0.054555122 0)
(-0.898426843 0.056638853 0)
(-0.885464555 0.058718259 0)
(-0.871263311 0.060759459 0)
(-0.855866611 0.062736635 0)
(-0.839318723 0.064615009 0)
(-0.821659992 0.066352359 0)
(-0.802943356 0.067907816 0)
(-0.783221511 0.069250031 0)
(-0.762547640 0.070343798 0)
(-0.740990498 0.071150560 0)
(-0.718610311 0.071634184 0)
(-0.695468169 0.071767029 0)
(-0.671636541 0.071519185 0)
(-0.647185019 0.070868541 0)
(-0.622186175 0.069792648 0)
(-0.596713174 0.068274499 0)
(-0.570839942 0.066307665 0)
(-0.544643840 0.063881246 0)
(-0.518199593 0.061000448 0)
(-0.491580398 0.057671730 0)
(-0.464861328 0.053906612 0)
(-0.438113985 0.049721849 0)
(-0.411409138 0.045140171 0)
(-0.384813186 0.040190442 0)
(-0.358391783 0.034907337 0)
(-0.332202567 0.029326780 0)
(-0.306297610 0.023488582 0)
(-0.280734950 0.017443188 0)
(-0.255561992 0.011236924 0)
(-0.230814034 0.004918087 0)
(-0.206528717 -0.001465376 0)
(-0.182741520 -0.007857020 0)
(-0.159476797 -0.014200910 0)
(-0.136753124 -0.020451602 0)
(-0.114589045 -0.026554210 0)
(-0.093000291 -0.032456844 0)
(-0.071993455 -0.038112885 0)
(-0.051574155 -0.043470739 0)
(-0.031745600 -0.048492481 0)
(-0.012505858 -0.053136859 0)
(0.006142398 -0.057358195 0)
(0.024200844 -0.061121253 0)
(0.041675899 -0.064400349 0)
(0.058570412 -0.067164456 0)
(0.074886468 -0.069386077 0)
(0.090626535 -0.071048075 0)
(0.105786832 -0.072127793 0)
(0.120365811 -0.072615875 0)
(0.134360427 -0.072504892 0)
(0.147757637 -0.071785428 0)
(0.160544691 -0.070455762 0)
(0.172699222 -0.068519160 0)
(0.184195621 -0.065984435 0)
(0.195004624 -0.062862810 0)
(0.205090171 -0.059163717 0)
(0.214411040 -0.054908222 0)
(0.222922228 -0.050122952 0)
(0.230576624 -0.044825606 0)
(0.237322253 -0.039044341 0)
(0.243109661 -0.032816789 0)
(0.247889017 -0.026162311 0)
(0.251619436 -0.019113198 0)
(0.254265168 -0.011698373 0)
(0.255791506 -0.003938122 0)
(0.256181226 0.004157049 0)
(0.255424527 0.012590496 0)
(0.253519882 0.021369014 0)
(0.250468385 0.030532296 0)
(0.246275812 0.040147426 0)
(0.240949101 0.050298038 0)
(0.234479683 0.061099353 0)
(0.226852276 0.072679419 0)
(0.218039979 0.085130300 0)
(0.208010016 0.098509357 0)
(0.196748979 0.112763009 0)
(0.184274829 0.127665555 0)
(0.170669378 0.142808824 0)
(0.156098318 0.157571391 0)
(0.140803896 0.171144889 0)
(0.125084648 0.182668404 0)
(0.109239852 0.191357785 0)
(0.093506702 0.196621722 0)
(0.077999459 0.198207293 0)
(0.062712462 0.196211802 0)
(0.047546532 0.191014508 0)
(0.032376859 0.183179892 0)
(0.017132822 0.173306796 0)
(0.001809937 0.161918097 0)
(-0.013515403 0.149424185 0)
(-0.028719831 0.136119671 0)
(-0.043687606 0.122221962 0)
(-0.058328946 0.107906286 0)
(-0.072596013 0.093335263 0)
(-0.086469930 0.078698171 0)
(-0.099943277 0.064198822 0)
(-0.113002769 0.050073483 0)
(-0.125616975 0.036603083 0)
(-0.137728273 0.024071009 0)
(-0.149251401 0.012765709 0)
(-0.160086224 0.002973527 0)
(-0.170120965 -0.005020783 0)
(-0.179256228 -0.010982513 0)
(-0.187410922 -0.014749000 0)
(-0.194532107 -0.016239844 0)
(-0.200619299 -0.015513304 0)
(-0.205735904 -0.012772427 0)
(-0.209996142 -0.008419954 0)
(-0.213558933 -0.003039032 0)
(-0.216630516 0.002630750 0)
(-0.219432723 0.007715368 0)
(-0.222198018 0.011269083 0)
(-0.225157653 0.012319143 0)
(-0.228526157 0.009904551 0)
(-0.232497141 0.003112315 0)
(-0.237220679 -0.008936444 0)
(-0.242760393 -0.027134842 0)
(-0.249035246 -0.052360727 0)
(-0.255715812 -0.085453241 0)
(-0.262113870 -0.127103131 0)
(-0.267107478 -0.177662030 0)
(-0.269166793 -0.236902323 0)
(-0.266524095 -0.303851714 0)
(-0.131899035 -0.376902669 0)
(-0.354472992 0.266372249 0)
(-0.680510208 0.137129687 0)
(-0.629758909 0.042754076 0)
(-0.588856981 -0.022966394 0)
(-0.553649645 -0.062246915 0)
(-0.521215618 -0.071978060 0)
(-0.491740290 -0.050508716 0)
(-0.470657306 -0.010395629 0)
(-0.464581666 0.023896752 0)
(-0.473983643 0.035709759 0)
(-0.492297654 0.026413603 0)
(-0.511347394 0.006805509 0)
(-0.525754044 -0.013999407 0)
(-0.533607099 -0.031957155 0)
(-0.535234874 -0.046503507 0)
(-0.531938406 -0.058402384 0)
(-0.525227555 -0.068518042 0)
(-0.516452880 -0.077388140 0)
(-0.506700281 -0.085194290 0)
(-0.496767478 -0.091882869 0)
(-0.487171822 -0.097343439 0)
(-0.478164525 -0.101523494 0)
(-0.469760767 -0.104481512 0)
(-0.461769347 -0.106381732 0)
(-0.453873866 -0.107463260 0)
(-0.445726527 -0.107967863 0)
(-0.437022413 -0.108057059 0)
(-0.427595337 -0.107768920 0)
(-0.417474666 -0.106992493 0)
(-0.406891267 -0.105479949 0)
(-0.396254340 -0.102901943 0)
(-0.386098145 -0.098927377 0)
(-0.377011683 -0.093311087 0)
(-0.369548019 -0.085959241 0)
(-0.364149757 -0.076978293 0)
(-0.361102371 -0.066684730 0)
(-0.360509032 -0.055559263 0)
(-0.362290584 -0.044192204 0)
(-0.366202879 -0.033219736 0)
(-0.371884749 -0.023223447 0)
(-0.378904177 -0.014670573 0)
(-0.386794663 -0.007890488 0)
(-0.395112518 -0.003035530 0)
(-0.403461672 -0.000102110 0)
(-0.411508780 0.001044310 0)
(-0.419004586 0.000651441 0)
(-0.425776380 -0.000977030 0)
(-0.431717210 -0.003506532 0)
(-0.436783149 -0.006600396 0)
(-0.440971941 -0.009948621 0)
(-0.444302701 -0.013281443 0)
(-0.446820388 -0.016364803 0)
(-0.448576434 -0.019015367 0)
(-0.449618467 -0.021100672 0)
(-0.450004214 -0.022527301 0)
(-0.449783510 -0.023238762 0)
(-0.449011928 -0.023203395 0)
(-0.447761210 -0.022419422 0)
(-0.446104070 -0.020906716 0)
(-0.444129158 -0.018691303 0)
(-0.441944227 -0.015819670 0)
(-0.439676489 -0.012346986 0)
(-0.437470049 -0.008334171 0)
(-0.435487472 -0.003855959 0)
(-0.433905194 0.001021198 0)
(-0.432922552 0.006219757 0)
(-0.432734873 0.011650831 0)
(-0.433545361 0.017235271 0)
(-0.435567140 0.022899638 0)
(-0.438998972 0.028564653 0)
(-0.444030263 0.034148888 0)
(-0.450841189 0.039588126 0)
(-0.459597035 0.044824625 0)
(-0.470437122 0.049799732 0)
(-0.483483622 0.054467722 0)
(-0.498831303 0.058790375 0)
(-0.516545210 0.062739416 0)
(-0.536677294 0.066299353 0)
(-0.559249687 0.069459110 0)
(-0.584252503 0.072213639 0)
(-0.611659983 0.074567017 0)
(-0.641425641 0.076532821 0)
(-0.673475863 0.078125086 0)
(-0.707718162 0.079359171 0)
(-0.744053704 0.080259910 0)
(-0.782370419 0.080852031 0)
(-0.822530825 0.081159398 0)
(-0.864389638 0.081204797 0)
(-0.907805907 0.081008355 0)
(-0.952621371 0.080592286 0)
(-0.998676139 0.079980775 0)
(-1.045806573 0.079190622 0)
(-1.093841335 0.078237584 0)
(-1.142616092 0.077134166 0)
(-1.191962974 0.075896212 0)
(-1.241706029 0.074534916 0)
(-1.291680369 0.073056871 0)
(-1.341729329 0.071468607 0)
(-1.391684312 0.069777275 0)
(-1.441382719 0.067994643 0)
(-1.490662127 0.066127068 0)
(-1.539368543 0.064171694 0)
(-1.587358067 0.062136673 0)
(-1.634473168 0.060032787 0)
(-1.680566339 0.057865230 0)
(-1.725496908 0.055645815 0)
(-1.769125036 0.053376691 0)
(-1.811315321 0.051066830 0)
(-1.851928412 0.048733872 0)
(-1.890838726 0.046383187 0)
(-1.927922970 0.044025823 0)
(-1.963056293 0.041683714 0)
(-1.996126294 0.039365144 0)
(-2.027017833 0.037082235 0)
(-2.055627810 0.034858819 0)
(-2.081848716 0.032700942 0)
(-2.105588586 0.030621948 0)
(-2.126766415 0.028648641 0)
(-2.145286110 0.026792614 0)
(-2.161078565 0.025066504 0)
(-2.174084945 0.023479697 0)
(-2.184235971 0.022045653 0)
(-2.191481585 0.020779276 0)
(-2.195784528 0.019687244 0)
(-2.197104870 0.018775075 0)
(-2.195420514 0.018050992 0)
(-2.190720012 0.017514391 0)
(-2.182997638 0.017162464 0)
(-2.172259535 0.016994018 0)
(-2.158515241 0.016997107 0)
(-2.141784669 0.017164273 0)
(-2.122116041 0.017478098 0)
(-2.099548730 0.017923120 0)
(-2.074126933 0.018479228 0)
(-2.045924021 0.019110011 0)
(-2.015003063 0.019792711 0)
(-1.981450856 0.020496419 0)
(-1.945362662 0.021183767 0)
(-1.906824653 0.021823186 0)
(-1.865947633 0.022369923 0)
(-1.822842959 0.022784139 0)
(-1.777627715 0.023026422 0)
(-1.730440110 0.023056477 0)
(-1.681409333 0.022834982 0)
(-1.630669499 0.022323714 0)
(-1.578366590 0.021489678 0)
(-1.524654251 0.020299432 0)
(-1.469686269 0.018725027 0)
(-1.413615666 0.016748630 0)
(-1.356600147 0.014352428 0)
(-1.298805223 0.011518972 0)
(-1.240391966 0.008246908 0)
(-1.181522451 0.004539341 0)
(-1.122360074 0.000402464 0)
(-1.063057789 -0.004144951 0)
(-1.003772987 -0.009081778 0)
(-0.944651442 -0.014382758 0)
(-0.885840018 -0.020012024 0)
(-0.827471113 -0.025933960 0)
(-0.769670066 -0.032099591 0)
(-0.712563361 -0.038456883 0)
(-0.656257969 -0.044963187 0)
(-0.600846947 -0.051559717 0)
(-0.546417648 -0.058191040 0)
(-0.493050789 -0.064799692 0)
(-0.440810844 -0.071321840 0)
(-0.389750370 -0.077709835 0)
(-0.339915158 -0.083905272 0)
(-0.291340586 -0.089846200 0)
(-0.244049662 -0.095482998 0)
(-0.198063010 -0.100764338 0)
(-0.153386267 -0.105645998 0)
(-0.110020256 -0.110083371 0)
(-0.067974368 -0.114035486 0)
(-0.027243731 -0.117466096 0)
(0.012186364 -0.120345555 0)
(0.050319489 -0.122643352 0)
(0.087162982 -0.124331566 0)
(0.122729895 -0.125396572 0)
(0.157018307 -0.125821807 0)
(0.190030283 -0.125597531 0)
(0.221761689 -0.124719345 0)
(0.252197926 -0.123180703 0)
(0.281322476 -0.120983708 0)
(0.309098409 -0.118135143 0)
(0.335485417 -0.114643746 0)
(0.360432700 -0.110523464 0)
(0.383874652 -0.105789493 0)
(0.405738436 -0.100466108 0)
(0.425937205 -0.094576037 0)
(0.444379521 -0.088146703 0)
(0.460967131 -0.081207690 0)
(0.475598562 -0.073791011 0)
(0.488169239 -0.065923206 0)
(0.498591099 -0.057634446 0)
(0.506784959 -0.048960291 0)
(0.512673058 -0.039931854 0)
(0.516206900 -0.030568672 0)
(0.517359355 -0.020879706 0)
(0.516119062 -0.010872148 0)
(0.512485969 -0.000534170 0)
(0.506476659 0.010165488 0)
(0.498111980 0.021287233 0)
(0.487393512 0.032925292 0)
(0.474305088 0.045188837 0)
(0.458815156 0.058205845 0)
(0.440866572 0.072109468 0)
(0.420403180 0.086977412 0)
(0.397414814 0.102787493 0)
(0.371984683 0.119372941 0)
(0.344328823 0.136365529 0)
(0.314824779 0.153157777 0)
(0.283991442 0.168954617 0)
(0.252411397 0.182867008 0)
(0.220632070 0.194042332 0)
(0.189014723 0.201828548 0)
(0.157687142 0.205900621 0)
(0.126568168 0.206297125 0)
(0.095454471 0.203368426 0)
(0.064177916 0.197662146 0)
(0.032683766 0.189760356 0)
(0.001069776 0.180181167 0)
(-0.030438762 0.169332437 0)
(-0.061587597 0.157514045 0)
(-0.092162433 0.144944487 0)
(-0.122020235 0.131793120 0)
(-0.151096291 0.118235025 0)
(-0.179368966 0.104450844 0)
(-0.206817347 0.090659808 0)
(-0.233397315 0.077117631 0)
(-0.259013391 0.064089501 0)
(-0.283523697 0.051871635 0)
(-0.306743816 0.040766631 0)
(-0.328445576 0.031085079 0)
(-0.348421697 0.023100656 0)
(-0.366492567 0.017051451 0)
(-0.382512344 0.013120844 0)
(-0.396443511 0.011367400 0)
(-0.408363106 0.011731332 0)
(-0.418445131 0.013968812 0)
(-0.426981670 0.017638321 0)
(-0.434350853 0.022120976 0)
(-0.440979677 0.026621770 0)
(-0.447336141 0.030219604 0)
(-0.453886597 0.031928546 0)
(-0.461070443 0.030742979 0)
(-0.469302186 0.025689725 0)
(-0.478915847 0.015834122 0)
(-0.490114475 0.000244536 0)
(-0.502882319 -0.021984875 0)
(-0.516786608 -0.051756645 0)
(-0.530783575 -0.089918654 0)
(-0.543006370 -0.137113307 0)
(-0.550733201 -0.193569751 0)
(-0.550600438 -0.258826486 0)
(-0.274058356 -0.331603895 0)
(-0.345438324 0.184433764 0)
(-0.665514728 0.074835574 0)
(-0.619468806 -0.003953643 0)
(-0.580852361 -0.055955457 0)
(-0.546281416 -0.079886484 0)
(-0.514535487 -0.072020708 0)
(-0.489240312 -0.038627345 0)
(-0.477331055 -0.001496638 0)
(-0.481751184 0.017881648 0)
(-0.497707763 0.014809278 0)
(-0.516783156 -0.001875517 0)
(-0.532398965 -0.021974724 0)
(-0.541603011 -0.039969839 0)
(-0.544197731 -0.054484826 0)
(-0.541336289 -0.066058478 0)
(-0.534563827 -0.075619352 0)
(-0.525356693 -0.083840306 0)
(-0.514942777 -0.091014437 0)
(-0.504255323 -0.097168093 0)
(-0.493937588 -0.102215021 0)
(-0.484345747 -0.106084737 0)
(-0.475565366 -0.108815302 0)
(-0.467462154 -0.110550592 0)
(-0.459732062 -0.111512545 0)
(-0.452003791 -0.111932807 0)
(-0.443938722 -0.111975485 0)
(-0.435309333 -0.111687479 0)
(-0.426068462 -0.110946271 0)
(-0.416392339 -0.109486600 0)
(-0.406645255 -0.106944254 0)
(-0.397335080 -0.102933146 0)
(-0.389043400 -0.097148953 0)
(-0.382335255 -0.089449697 0)
(-0.377679704 -0.079904093 0)
(-0.375388713 -0.068806416 0)
(-0.375596287 -0.056658003 0)
(-0.378241526 -0.044089268 0)
(-0.383103394 -0.031785163 0)
(-0.389829777 -0.020401789 0)
(-0.397983569 -0.010472261 0)
(-0.407109925 -0.002375692 0)
(-0.416749310 0.003687959 0)
(-0.426494919 0.007705085 0)
(-0.436010509 0.009810442 0)
(-0.445031716 0.010256243 0)
(-0.453384496 0.009373997 0)
(-0.460957299 0.007529151 0)
(-0.467695746 0.005087975 0)
(-0.473598138 0.002396617 0)
(-0.478690980 -0.000243516 0)
(-0.483006706 -0.002586154 0)
(-0.486598621 -0.004427529 0)
(-0.489526270 -0.005622393 0)
(-0.491846410 -0.006070004 0)
(-0.493626409 -0.005711765 0)
(-0.494935581 -0.004530185 0)
(-0.495853369 -0.002524778 0)
(-0.496482266 0.000276740 0)
(-0.496941159 0.003825806 0)
(-0.497363783 0.008062573 0)
(-0.497909873 0.012908778 0)
(-0.498762719 0.018286655 0)
(-0.500121256 0.024108376 0)
(-0.502201021 0.030270844 0)
(-0.505227575 0.036681083 0)
(-0.509437632 0.043243144 0)
(-0.515062115 0.049850413 0)
(-0.522321761 0.056410679 0)
(-0.531436860 0.062843823 0)
(-0.542614621 0.069065343 0)
(-0.556033859 0.074999813 0)
(-0.571848811 0.080588122 0)
(-0.590194860 0.085781429 0)
(-0.611175869 0.090537703 0)
(-0.634868316 0.094829418 0)
(-0.661322259 0.098645320 0)
(-0.690548506 0.101979142 0)
(-0.722539805 0.104834269 0)
(-0.757268733 0.107226175 0)
(-0.794672656 0.109171972 0)
(-0.834666997 0.110696594 0)
(-0.877158765 0.111831112 0)
(-0.922031054 0.112600521 0)
(-0.969146710 0.113037260 0)
(-1.018365478 0.113176107 0)
(-1.069537423 0.113046573 0)
(-1.122496931 0.112674505 0)
(-1.177072175 0.112082796 0)
(-1.233095148 0.111293555 0)
(-1.290389028 0.110320731 0)
(-1.348773561 0.109179033 0)
(-1.408066966 0.107879114 0)
(-1.468088433 0.106429947 0)
(-1.528659510 0.104833798 0)
(-1.589602337 0.103091608 0)
(-1.650737006 0.101206438 0)
(-1.711888673 0.099173976 0)
(-1.772886069 0.096990178 0)
(-1.833554906 0.094656058 0)
(-1.893731025 0.092166585 0)
(-1.953244823 0.089518890 0)
(-2.011926173 0.086709590 0)
(-2.069614317 0.083737419 0)
(-2.126151793 0.080604599 0)
(-2.181388597 0.077312396 0)
(-2.235157620 0.073868046 0)
(-2.287305877 0.070271124 0)
(-2.337696683 0.066525763 0)
(-2.386171605 0.062647749 0)
(-2.432586744 0.058648689 0)
(-2.476808089 0.054538734 0)
(-2.518694446 0.050332257 0)
(-2.558116280 0.046044397 0)
(-2.594951061 0.041693939 0)
(-2.629079313 0.037305525 0)
(-2.660377953 0.032896354 0)
(-2.688737148 0.028482784 0)
(-2.714060041 0.024093576 0)
(-2.736248525 0.019753887 0)
(-2.755223020 0.015481076 0)
(-2.770909910 0.011297020 0)
(-2.783223856 0.007228257 0)
(-2.792120175 0.003297914 0)
(-2.797551480 -0.000475531 0)
(-2.799468093 -0.004076293 0)
(-2.797845175 -0.007485658 0)
(-2.792665103 -0.010688078 0)
(-2.783931901 -0.013674386 0)
(-2.771640365 -0.016438052 0)
(-2.755806316 -0.018971438 0)
(-2.736459655 -0.021272973 0)
(-2.713637295 -0.023352408 0)
(-2.687402513 -0.025213981 0)
(-2.657799920 -0.026869829 0)
(-2.624902785 -0.028342476 0)
(-2.588798806 -0.029645940 0)
(-2.549572630 -0.030810249 0)
(-2.507330134 -0.031873020 0)
(-2.462173067 -0.032857967 0)
(-2.414227427 -0.033803811 0)
(-2.363615916 -0.034755921 0)
(-2.310471331 -0.035755212 0)
(-2.254941527 -0.036846302 0)
(-2.197169985 -0.038071928 0)
(-2.137310422 -0.039475887 0)
(-2.075524047 -0.041103048 0)
(-2.011978938 -0.042991219 0)
(-1.946846157 -0.045175091 0)
(-1.880297251 -0.047687073 0)
(-1.812510950 -0.050555395 0)
(-1.743668894 -0.053797462 0)
(-1.673952346 -0.057431163 0)
(-1.603548325 -0.061463045 0)
(-1.532642532 -0.065888428 0)
(-1.461414702 -0.070699060 0)
(-1.390046927 -0.075875978 0)
(-1.318715440 -0.081396306 0)
(-1.247592412 -0.087225545 0)
(-1.176844116 -0.093330227 0)
(-1.106631936 -0.099664775 0)
(-1.037107924 -0.106174654 0)
(-0.968407408 -0.112808492 0)
(-0.900663360 -0.119504633 0)
(-0.833993730 -0.126202025 0)
(-0.768504741 -0.132843748 0)
(-0.704291082 -0.139359041 0)
(-0.641431764 -0.145683424 0)
(-0.579996879 -0.151762713 0)
(-0.520039495 -0.157531459 0)
(-0.461602084 -0.162926592 0)
(-0.404720776 -0.167896226 0)
(-0.349414790 -0.172392121 0)
(-0.295696199 -0.176366819 0)
(-0.243577976 -0.179774802 0)
(-0.193058596 -0.182582366 0)
(-0.144124355 -0.184756499 0)
(-0.096771026 -0.186266292 0)
(-0.050989940 -0.187088956 0)
(-0.006758171 -0.187206383 0)
(0.035931936 -0.186612246 0)
(0.077091814 -0.185299101 0)
(0.116729608 -0.183260270 0)
(0.154843172 -0.180498561 0)
(0.191432344 -0.177022185 0)
(0.226483085 -0.172842262 0)
(0.259971443 -0.167975520 0)
(0.291864627 -0.162439554 0)
(0.322117113 -0.156255637 0)
(0.350668800 -0.149450866 0)
(0.377448693 -0.142055504 0)
(0.402375639 -0.134106962 0)
(0.425361888 -0.125631117 0)
(0.446305466 -0.116661747 0)
(0.465098465 -0.107240455 0)
(0.481644940 -0.097399210 0)
(0.495850070 -0.087175217 0)
(0.507618412 -0.076605019 0)
(0.516881884 -0.065711861 0)
(0.523595493 -0.054518221 0)
(0.527723680 -0.043041724 0)
(0.529259141 -0.031285150 0)
(0.528217247 -0.019245866 0)
(0.524626928 -0.006887152 0)
(0.518520968 0.005856399 0)
(0.509916245 0.019060315 0)
(0.498822592 0.032842804 0)
(0.485213056 0.047349112 0)
(0.469021385 0.062719423 0)
(0.450181778 0.079063486 0)
(0.428653456 0.096395570 0)
(0.404465681 0.114595307 0)
(0.377775908 0.133332438 0)
(0.348908081 0.152033497 0)
(0.318341085 0.169915658 0)
(0.286651988 0.186059807 0)
(0.254386421 0.199570840 0)
(0.221937347 0.209742019 0)
(0.189476526 0.216181960 0)
(0.156956791 0.218875245 0)
(0.124232764 0.218141791 0)
(0.091184025 0.214491966 0)
(0.057805113 0.208491339 0)
(0.024256175 0.200647660 0)
(-0.009193094 0.191369201 0)
(-0.042257714 0.180948046 0)
(-0.074708384 0.169590123 0)
(-0.106411174 0.157482651 0)
(-0.137301630 0.144792782 0)
(-0.167363823 0.131716164 0)
(-0.196586349 0.118480691 0)
(-0.224914704 0.105336724 0)
(-0.252251778 0.092567075 0)
(-0.278447134 0.080485584 0)
(-0.303299191 0.069409356 0)
(-0.326585778 0.059637461 0)
(-0.348090189 0.051466849 0)
(-0.367616047 0.045149734 0)
(-0.385043579 0.040853252 0)
(-0.400353135 0.038637810 0)
(-0.413622455 0.038420683 0)
(-0.425064328 0.039924798 0)
(-0.434991632 0.042669029 0)
(-0.443793678 0.045978166 0)
(-0.451930940 0.049003739 0)
(-0.459872560 0.050780486 0)
(-0.468082361 0.050290624 0)
(-0.477007630 0.046503571 0)
(-0.487036873 0.038411459 0)
(-0.498500402 0.025046423 0)
(-0.511602581 0.005466413 0)
(-0.526281592 -0.021265661 0)
(-0.542061714 -0.056076385 0)
(-0.557797397 -0.099799076 0)
(-0.571488631 -0.153007435 0)
(-0.580274460 -0.215755499 0)
(-0.291515394 -0.287300735 0)
(-0.338008952 0.116437726 0)
(-0.652810872 0.023447169 0)
(-0.609971932 -0.041583303 0)
(-0.572659403 -0.079589886 0)
(-0.538639769 -0.086738905 0)
(-0.509578721 -0.063788382 0)
(-0.491783290 -0.027285649 0)
(-0.490312197 -0.001246352 0)
(-0.502813128 0.002811112 0)
(-0.521277230 -0.009959993 0)
(-0.537998504 -0.028956032 0)
(-0.548781515 -0.047051214 0)
(-0.552666725 -0.061776104 0)
(-0.550532825 -0.073259354 0)
(-0.543925787 -0.082416796 0)
(-0.534432105 -0.090058751 0)
(-0.523426203 -0.096629227 0)
(-0.511989942 -0.102237853 0)
(-0.500900210 -0.106837626 0)
(-0.490636992 -0.110374378 0)
(-0.481386182 -0.112855319 0)
(-0.473074234 -0.114402567 0)
(-0.465434616 -0.115217699 0)
(-0.458085051 -0.115528891 0)
(-0.450643883 -0.115511163 0)
(-0.442826907 -0.115205489 0)
(-0.434521065 -0.114500913 0)
(-0.425823595 -0.113114873 0)
(-0.417045034 -0.110651057 0)
(-0.408659333 -0.106675873 0)
(-0.401234687 -0.100816270 0)
(-0.395341427 -0.092862726 0)
(-0.391472331 -0.082833027 0)
(-0.389972488 -0.070998350 0)
(-0.391000584 -0.057862297 0)
(-0.394533506 -0.044089165 0)
(-0.400365970 -0.030415188 0)
(-0.408162929 -0.017564832 0)
(-0.417501135 -0.006148578 0)
(-0.427912449 0.003390773 0)
(-0.438945409 0.010803877 0)
(-0.450180896 0.016049174 0)
(-0.461274965 0.019256802 0)
(-0.471961795 0.020684931 0)
(-0.482042849 0.020688933 0)
(-0.491412962 0.019667222 0)
(-0.500016888 0.018019730 0)
(-0.507834818 0.016121952 0)
(-0.514894366 0.014307455 0)
(-0.521240509 0.012854184 0)
(-0.526914409 0.011973865 0)
(-0.531980937 0.011824205 0)
(-0.536511558 0.012511804 0)
(-0.540579850 0.014094139 0)
(-0.544277069 0.016587246 0)
(-0.547708017 0.019968910 0)
(-0.550994667 0.024200146 0)
(-0.554288100 0.029216018 0)
(-0.557766384 0.034930213 0)
(-0.561621152 0.041247358 0)
(-0.566077378 0.048059940 0)
(-0.571372659 0.055257521 0)
(-0.577753771 0.062720011 0)
(-0.585487332 0.070324968 0)
(-0.594830351 0.077957802 0)
(-0.606039976 0.085512136 0)
(-0.619363554 0.092879487 0)
(-0.635019361 0.099965335 0)
(-0.653206975 0.106692149 0)
(-0.674106495 0.112988095 0)
(-0.697868497 0.118801975 0)
(-0.724598235 0.124097747 0)
(-0.754381551 0.128848724 0)
(-0.787268383 0.133044609 0)
(-0.823271012 0.136692947 0)
(-0.862384112 0.139809688 0)
(-0.904562152 0.142419059 0)
(-0.949736252 0.144551720 0)
(-0.997821559 0.146242979 0)
(-1.048704736 0.147536587 0)
(-1.102255934 0.148473060 0)
(-1.158337257 0.149091206 0)
(-1.216795474 0.149428628 0)
(-1.277459836 0.149521516 0)
(-1.340157268 0.149402353 0)
(-1.404711610 0.149092412 0)
(-1.470937923 0.148612495 0)
(-1.538650819 0.147976724 0)
(-1.607662756 0.147196399 0)
(-1.677787445 0.146273844 0)
(-1.748830060 0.145202938 0)
(-1.820601777 0.143978856 0)
(-1.892913599 0.142597038 0)
(-1.965582532 0.141044862 0)
(-2.038427556 0.139303525 0)
(-2.111261271 0.137361201 0)
(-2.183898704 0.135199617 0)
(-2.256159913 0.132801899 0)
(-2.327866757 0.130158250 0)
(-2.398843737 0.127250560 0)
(-2.468914758 0.124063131 0)
(-2.537899914 0.120588829 0)
(-2.605623217 0.116818532 0)
(-2.671911905 0.112743826 0)
(-2.736607717 0.108359678 0)
(-2.799529149 0.103666311 0)
(-2.860504343 0.098668579 0)
(-2.919381906 0.093369246 0)
(-2.975997610 0.087775685 0)
(-3.030180638 0.081901885 0)
(-3.081779734 0.075760440 0)
(-3.130647117 0.069364589 0)
(-3.176625564 0.062737136 0)
(-3.219582003 0.055900603 0)
(-3.259382941 0.048877485 0)
(-3.295895441 0.041702957 0)
(-3.328994340 0.034400145 0)
(-3.358561548 0.026998486 0)
(-3.384494379 0.019533451 0)
(-3.406698752 0.012034947 0)
(-3.425091477 0.004543843 0)
(-3.439582774 -0.002906687 0)
(-3.450111656 -0.010283366 0)
(-3.456631012 -0.017550135 0)
(-3.459088181 -0.024673717 0)
(-3.457451178 -0.031624205 0)
(-3.451698912 -0.038367584 0)
(-3.441830479 -0.044879097 0)
(-3.427846712 -0.051133541 0)
(-3.409768705 -0.057108615 0)
(-3.387628302 -0.062789297 0)
(-3.361460543 -0.068160686 0)
(-3.331335294 -0.073218103 0)
(-3.297308479 -0.077959665 0)
(-3.259462730 -0.082389344 0)
(-3.217901497 -0.086513687 0)
(-3.172715047 -0.090350479 0)
(-3.124014598 -0.093923569 0)
(-3.071922680 -0.097256362 0)
(-3.016577710 -0.100378383 0)
(-2.958122199 -0.103331738 0)
(-2.896699906 -0.106156044 0)
(-2.832466249 -0.108894126 0)
(-2.765591906 -0.111592546 0)
(-2.696244228 -0.114301514 0)
(-2.624597156 -0.117070666 0)
(-2.550834830 -0.119944859 0)
(-2.475147913 -0.122973536 0)
(-2.397727239 -0.126199921 0)
(-2.318764130 -0.129662380 0)
(-2.238450463 -0.133387395 0)
(-2.156993829 -0.137411200 0)
(-2.074599287 -0.141750448 0)
(-1.991466900 -0.146410273 0)
(-1.907798675 -0.151397913 0)
(-1.823800121 -0.156702174 0)
(-1.739675222 -0.162305680 0)
(-1.655618735 -0.168182143 0)
(-1.571825379 -0.174305140 0)
(-1.488479780 -0.180628772 0)
(-1.405767156 -0.187100049 0)
(-1.323852669 -0.193667170 0)
(-1.242901622 -0.200268511 0)
(-1.163076059 -0.206838045 0)
(-1.084503884 -0.213309527 0)
(-1.007307939 -0.219613549 0)
(-0.931605722 -0.225675023 0)
(-0.857490623 -0.231428748 0)
(-0.785046749 -0.236809729 0)
(-0.714343482 -0.241748836 0)
(-0.645433068 -0.246187313 0)
(-0.578360258 -0.250068343 0)
(-0.513153533 -0.253338627 0)
(-0.449833864 -0.255949955 0)
(-0.388411988 -0.257863445 0)
(-0.328883568 -0.259046069 0)
(-0.271246853 -0.259468994 0)
(-0.215491253 -0.259107872 0)
(-0.161595286 -0.257948815 0)
(-0.109547608 -0.255982894 0)
(-0.059330036 -0.253206341 0)
(-0.010920775 -0.249620923 0)
(0.035687931 -0.245231612 0)
(0.080507628 -0.240056254 0)
(0.123547559 -0.234112324 0)
(0.164799716 -0.227419935 0)
(0.204250555 -0.220009788 0)
(0.241874407 -0.211913822 0)
(0.277629836 -0.203163490 0)
(0.311469319 -0.193795660 0)
(0.343328350 -0.183856761 0)
(0.373130122 -0.173384188 0)
(0.400780994 -0.162418885 0)
(0.426186894 -0.151010104 0)
(0.449246896 -0.139199392 0)
(0.469855419 -0.127027558 0)
(0.487908883 -0.114537059 0)
(0.503322338 -0.101762070 0)
(0.516030340 -0.088731248 0)
(0.525972751 -0.075468206 0)
(0.533124422 -0.061986905 0)
(0.537483599 -0.048302998 0)
(0.539073335 -0.034399507 0)
(0.537938347 -0.020237580 0)
(0.534127774 -0.005769508 0)
(0.527685120 0.009091699 0)
(0.518628892 0.024467645 0)
(0.506946446 0.040509431 0)
(0.492584442 0.057377442 0)
(0.475461107 0.075190135 0)
(0.455505419 0.094011181 0)
(0.432696311 0.113762153 0)
(0.407129193 0.134150719 0)
(0.379071333 0.154642810 0)
(0.348957984 0.174456203 0)
(0.317333812 0.192672696 0)
(0.284740562 0.208362466 0)
(0.251595619 0.220754575 0)
(0.218098771 0.229413063 0)
(0.184250580 0.234277907 0)
(0.149956465 0.235613178 0)
(0.115153293 0.233903324 0)
(0.079917216 0.229696023 0)
(0.044473144 0.223484139 0)
(0.009146315 0.215653759 0)
(-0.025749755 0.206483048 0)